# vtk DataFile Version 3.0
Fluid Dynamics Simulation - Time: 0.100000
ASCII
DATASET STRUCTURED_POINTS
DIMENSIONS 30 20 1
ORIGIN 0.0 0.0 0.0
SPACING 1.0 1.0 1.0
POINT_DATA 600

VECTORS velocity double
0.000000000000000e+00 0.000000000000000e+00 0.0
0.000000000000000e+00 0.000000000000000e+00 0.0
0.000000000000000e+00 0.000000000000000e+00 0.0
0.000000000000000e+00 0.000000000000000e+00 0.0
0.000000000000000e+00 0.000000000000000e+00 0.0
0.000000000000000e+00 0.000000000000000e+00 0.0
0.000000000000000e+00 0.000000000000000e+00 0.0
0.000000000000000e+00 0.000000000000000e+00 0.0
0.000000000000000e+00 0.000000000000000e+00 0.0
0.000000000000000e+00 0.000000000000000e+00 0.0
0.000000000000000e+00 0.000000000000000e+00 0.0
0.000000000000000e+00 0.000000000000000e+00 0.0
0.000000000000000e+00 0.000000000000000e+00 0.0
0.000000000000000e+00 0.000000000000000e+00 0.0
0.000000000000000e+00 0.000000000000000e+00 0.0
0.000000000000000e+00 0.000000000000000e+00 0.0
0.000000000000000e+00 0.000000000000000e+00 0.0
0.000000000000000e+00 0.000000000000000e+00 0.0
0.000000000000000e+00 0.000000000000000e+00 0.0
0.000000000000000e+00 0.000000000000000e+00 0.0
0.000000000000000e+00 0.000000000000000e+00 0.0
0.000000000000000e+00 0.000000000000000e+00 0.0
0.000000000000000e+00 0.000000000000000e+00 0.0
0.000000000000000e+00 0.000000000000000e+00 0.0
0.000000000000000e+00 0.000000000000000e+00 0.0
0.000000000000000e+00 0.000000000000000e+00 0.0
0.000000000000000e+00 0.000000000000000e+00 0.0
0.000000000000000e+00 0.000000000000000e+00 0.0
0.000000000000000e+00 0.000000000000000e+00 0.0
0.000000000000000e+00 0.000000000000000e+00 0.0
0.000000000000000e+00 0.000000000000000e+00 0.0
1.122305205281297e-01 1.122044285708789e-03 0.0
1.753297641936697e-02 -1.828785236603693e-03 0.0
1.035425170986235e-01 7.114642331238567e-04 0.0
4.684096748054896e-02 -1.876476429722765e-03 0.0
1.058451335000268e-01 -6.366438125681084e-04 0.0
6.905949708185279e-02 4.778583110763417e-04 0.0
9.584857290406001e-02 3.333735662686658e-03 0.0
7.668148510421977e-02 5.272651775785968e-03 0.0
8.790846946207594e-02 8.778927647424360e-03 0.0
7.914769513636367e-02 6.745534779547586e-03 0.0
6.940905883154341e-02 5.320741033358336e-03 0.0
7.023575536881869e-02 4.220636746687150e-03 0.0
6.071031335187990e-02 4.071577033495250e-03 0.0
6.157619992513359e-02 3.067804320325003e-03 0.0
5.773539695246311e-02 3.223830029325937e-03 0.0
5.732674144884904e-02 2.462423036279841e-03 0.0
5.653634375994575e-02 2.418603287306219e-03 0.0
5.636400528977299e-02 1.991326748284984e-03 0.0
5.601780929414781e-02 1.846720816731623e-03 0.0
5.759971357130896e-02 1.639740551493775e-03 0.0
5.447500181089023e-02 1.524958653352149e-03 0.0
6.283447559578913e-02 1.421143061873871e-03 0.0
4.758820931642246e-02 1.369042584211600e-03 0.0
7.659661943400091e-02 1.294529629320725e-03 0.0
3.102998109334901e-02 1.311648007980883e-03 0.0
9.958590587827711e-02 1.204889950534841e-03 0.0
9.666934284115919e-03 1.291647733390633e-03 0.0
1.200299482846445e-01 1.147778888959411e-03 0.0
0.000000000000000e+00 0.000000000000000e+00 0.0
0.000000000000000e+00 0.000000000000000e+00 0.0
1.102571852554741e-01 1.464952257433213e-03 0.0
1.755161269666275e-02 -1.442561768517512e-02 0.0
1.042023707711126e-01 2.314729784297296e-03 0.0
4.606820138642328e-02 -2.858516018143357e-02 0.0
1.089136154322339e-01 3.185666238924250e-03 0.0
7.374463297053842e-02 -4.018984193922435e-03 0.0
1.014434431199444e-01 2.512882797012944e-03 0.0
8.294366245127277e-02 8.243732293309679e-03 0.0
9.025022490988847e-02 -3.503036375695167e-03 0.0
7.651413204828898e-02 2.378921533572975e-02 0.0
6.764088397192292e-02 7.583161185091607e-03 0.0
6.969687167399549e-02 1.531203044989875e-02 0.0
6.020561743358228e-02 9.385687529510987e-03 0.0
6.133630976224050e-02 7.934874256072508e-03 0.0
5.770145151241535e-02 6.811659307486308e-03 0.0
5.706680358865397e-02 4.539338433598568e-03 0.0
5.659100429173870e-02 4.234930191951870e-03 0.0
5.630401462342793e-02 3.051984805627695e-03 0.0
5.616836286487732e-02 2.755517893230889e-03 0.0
5.777493136518446e-02 2.283352877562124e-03 0.0
5.474652366848336e-02 2.069000696753101e-03 0.0
6.317576190630521e-02 1.874026987180461e-03 0.0
4.793557378428386e-02 1.775931759790073e-03 0.0
7.706593829778037e-02 1.663067582810450e-03 0.0
3.135760893068006e-02 1.668111843777998e-03 0.0
1.001997535628711e-01 1.537916470684950e-03 0.0
9.857756078593422e-03 1.627171407046324e-03 0.0
1.207844023086055e-01 1.468111301561196e-03 0.0
0.000000000000000e+00 0.000000000000000e+00 0.0
0.000000000000000e+00 0.000000000000000e+00 0.0
9.752430118253419e-02 1.093618572707941e-03 0.0
1.895078435348408e-02 -1.671310326034778e-02 0.0
9.014284386183057e-02 9.116934573534001e-04 0.0
4.833056059708195e-02 -3.053229962105991e-02 0.0
1.310986072124183e-01 -5.642898618587993e-03 0.0
6.913683489550235e-02 -4.407483403999762e-03 0.0
1.089558713243132e-01 5.802477608016763e-03 0.0
7.150717055615101e-02 1.477174632372724e-02 0.0
1.043554082957236e-01 2.253165606339423e-02 0.0
9.110338329750726e-02 3.393691207795979e-02 0.0
6.164472035125913e-02 1.319399575033391e-02 0.0
7.274736895721652e-02 1.410935859347505e-02 0.0
5.396457496855177e-02 1.199567760010828e-02 0.0
5.960000482441744e-02 6.324071222621437e-03 0.0
5.490278511594165e-02 7.969516321265375e-03 0.0
5.528794864673113e-02 3.819423428446752e-03 0.0
5.556959261816332e-02 4.415908481524986e-03 0.0
5.539256687071848e-02 2.590759194817932e-03 0.0
5.574881836026874e-02 2.427944707783353e-03 0.0
5.740865079537450e-02 1.769717612641967e-03 0.0
5.455510198656735e-02 1.529456011196910e-03 0.0
6.303849781350679e-02 1.285184868306275e-03 0.0
4.785158092759381e-02 1.154533306029376e-03 0.0
7.701619974597355e-02 1.046852550023936e-03 0.0
3.132291932536122e-02 1.006542661115898e-03 0.0
1.001800494569506e-01 9.370150379043709e-04 0.0
9.845971708815883e-03 9.446497552062287e-04 0.0
1.207706022143413e-01 8.885608896340510e-04 0.0
0.000000000000000e+00 0.000000000000000e+00 0.0
0.000000000000000e+00 0.000000000000000e+00 0.0
9.294575323321838e-02 6.458897402204738e-04 0.0
1.773035865733887e-02 -3.426787189591436e-02 0.0
9.053087281940260e-02 3.600227110122891e-03 0.0
3.972590963345660e-02 -9.663777421103474e-02 0.0
1.326081777094398e-01 7.041489246018983e-03 0.0
8.394385888917570e-02 -5.018471882313480e-05 0.0
1.195204523832104e-01 6.589510202970090e-03 0.0
9.889836126187387e-02 1.179180591852986e-02 0.0
1.084532462636455e-01 -3.528315428638527e-02 0.0
6.697024349112034e-02 6.318498350411793e-02 0.0
4.778254182247601e-02 2.147988270533990e-02 0.0
6.850801015035619e-02 2.600919415143720e-02 0.0
5.242461693342603e-02 2.156021138398418e-02 0.0
5.731028726185138e-02 9.960229796177262e-03 0.0
5.519968470444099e-02 1.222741895960341e-02 0.0
5.351441669583604e-02 4.796338176473624e-03 0.0
5.536400300155300e-02 5.772249346054851e-03 0.0
5.431753066506217e-02 2.848457889224809e-03 0.0
5.534879097175210e-02 2.743076835123850e-03 0.0
5.687786276356045e-02 1.814084691315576e-03 0.0
5.426342902096865e-02 1.551690983134820e-03 0.0
6.280218513943189e-02 1.253889510703178e-03 0.0
4.769871943830051e-02 1.108452960370339e-03 0.0
7.691922390393537e-02 9.953412982469211e-04 0.0
3.124930057155718e-02 9.492786279213017e-04 0.0
1.001391613460541e-01 8.864558002795046e-04 0.0
9.811315764925378e-03 8.904441668843954e-04 0.0
1.207295761649029e-01 8.404308746706792e-04 0.0
0.000000000000000e+00 0.000000000000000e+00 0.0
0.000000000000000e+00 0.000000000000000e+00 0.0
6.329831913225722e-02 1.195615290510300e-04 0.0
2.216758365708653e-02 -3.478590317389029e-02 0.0
2.866061221393287e-02 5.890581211894553e-03 0.0
5.298316230469961e-02 -9.862850863064825e-02 0.0
0.000000000000000e+00 0.000000000000000e+00 0.0
0.000000000000000e+00 0.000000000000000e+00 0.0
0.000000000000000e+00 0.000000000000000e+00 0.0
0.000000000000000e+00 0.000000000000000e+00 0.0
0.000000000000000e+00 0.000000000000000e+00 0.0
1.431554621286182e-01 1.044613792775368e-01 0.0
2.380752863648369e-02 1.479538084526346e-02 0.0
7.282938151582871e-02 1.223730476573005e-02 0.0
3.790732901453562e-02 2.231082782336079e-02 0.0
5.026251736958215e-02 2.570390148640534e-03 0.0
4.974109989812840e-02 1.270842046450118e-02 0.0
4.883213849179716e-02 2.088205842981859e-03 0.0
5.362181917566468e-02 5.602562555610480e-03 0.0
5.236336762979457e-02 1.795114202345519e-03 0.0
5.471443963864181e-02 2.270848285013623e-03 0.0
5.621725130306164e-02 1.199612281544915e-03 0.0
5.399494440193089e-02 1.047271787711163e-03 0.0
6.259519325619020e-02 7.605165079915267e-04 0.0
4.759315831823052e-02 6.479042416945718e-04 0.0
7.685684938040739e-02 5.642294875385441e-04 0.0
3.121431375913508e-02 5.310659237084051e-04 0.0
1.001208606534930e-01 5.020881331679362e-04 0.0
9.802111647164310e-03 5.015827440243383e-04 0.0
1.207203614826944e-01 4.841468158049337e-04 0.0
0.000000000000000e+00 0.000000000000000e+00 0.0
0.000000000000000e+00 0.000000000000000e+00 0.0
5.867675278658893e-02 -5.194928704582747e-03 0.0
2.405550370656086e-02 -2.245415600353158e-02 0.0
2.692369425532579e-02 -8.809875731489378e-03 0.0
6.289454677206241e-02 -4.249775339116488e-02 0.0
0.000000000000000e+00 0.000000000000000e+00 0.0
0.000000000000000e+00 0.000000000000000e+00 0.0
0.000000000000000e+00 0.000000000000000e+00 0.0
0.000000000000000e+00 0.000000000000000e+00 0.0
0.000000000000000e+00 0.000000000000000e+00 0.0
1.592670424103656e-01 -6.078344388492596e-02 0.0
-4.485742998268046e-02 1.010191765418734e-01 0.0
7.568390996235683e-02 6.900193324795435e-03 0.0
4.276779778932607e-02 5.188243182581456e-02 0.0
4.767027481063139e-02 -2.631338327068247e-03 0.0
5.471585049825280e-02 1.972925600205864e-02 0.0
4.640544143190408e-02 -1.295050913514402e-04 0.0
5.507008889126816e-02 6.225464978081056e-03 0.0
5.098571091861664e-02 7.855590905026086e-04 0.0
5.475319726048158e-02 1.800166558773826e-03 0.0
5.565427771600997e-02 5.978363397688629e-04 0.0
5.382436539242948e-02 5.815280770837979e-04 0.0
6.240275130664266e-02 3.465565506595578e-04 0.0
4.750254937577844e-02 2.939936392574711e-04 0.0
7.680221925853457e-02 2.560262934619948e-04 0.0
3.118739259798739e-02 2.537077588205893e-04 0.0
1.001093855002616e-01 2.542914097186048e-04 0.0
9.796730157967875e-03 2.658371016255735e-04 0.0
1.207136451412613e-01 2.632632017156700e-04 0.0
0.000000000000000e+00 0.000000000000000e+00 0.0
0.000000000000000e+00 0.000000000000000e+00 0.0
4.656122007345214e-02 -7.325120162549830e-03 0.0
1.896306958175219e-02 -1.904993468786767e-02 0.0
8.647430127458763e-03 -1.129638690479439e-02 0.0
3.729727473125779e-02 -3.430879762113949e-02 0.0
0.000000000000000e+00 0.000000000000000e+00 0.0
0.000000000000000e+00 0.000000000000000e+00 0.0
0.000000000000000e+00 0.000000000000000e+00 0.0
0.000000000000000e+00 0.000000000000000e+00 0.0
0.000000000000000e+00 0.000000000000000e+00 0.0
0.000000000000000e+00 0.000000000000000e+00 0.0
8.696951826222578e-02 9.820300315674321e-02 0.0
2.311917329246120e-02 -7.393584393032862e-02 0.0
2.837592431919966e-02 4.371579708439427e-02 0.0
1.805971922604193e-02 -1.039799457211211e-02 0.0
5.223202097939072e-02 1.306800611581185e-02 0.0
3.532711946599845e-02 -1.611276549922189e-03 0.0
5.453445548427771e-02 3.865995991033902e-03 0.0
4.793816550954576e-02 -2.988324121416166e-04 0.0
5.452649664621356e-02 7.493537328911197e-04 0.0
5.499861868185832e-02 -1.822663909720129e-04 0.0
5.374368596409167e-02 -7.897510891209616e-05 0.0
6.230760554849032e-02 -2.018799156200948e-04 0.0
4.750271981144320e-02 -1.748221836697841e-04 0.0
7.681644541320688e-02 -1.468079778455612e-04 0.0
3.121272089428793e-02 -1.038495057206961e-04 0.0
1.001328512661375e-01 -6.286414443240969e-05 0.0
9.815598834910955e-03 -3.250386509793048e-05 0.0
1.207213657314146e-01 -1.394189277156817e-05 0.0
0.000000000000000e+00 0.000000000000000e+00 0.0
0.000000000000000e+00 0.000000000000000e+00 0.0
4.729846894545013e-02 -9.042147998496489e-03 0.0
2.038102609384910e-02 -8.161404558249480e-03 0.0
1.168043969132068e-02 -1.020961544816009e-02 0.0
3.960265376541943e-02 -7.393539629160785e-03 0.0
0.000000000000000e+00 0.000000000000000e+00 0.0
0.000000000000000e+00 0.000000000000000e+00 0.0
0.000000000000000e+00 0.000000000000000e+00 0.0
0.000000000000000e+00 0.000000000000000e+00 0.0
0.000000000000000e+00 0.000000000000000e+00 0.0
0.000000000000000e+00 0.000000000000000e+00 0.0
0.000000000000000e+00 0.000000000000000e+00 0.0
0.000000000000000e+00 0.000000000000000e+00 0.0
1.051886489755106e-01 7.307081381368606e-02 0.0
1.673310793746718e-02 -3.420195596497158e-02 0.0
6.342088229951211e-02 1.886925919039024e-02 0.0
3.719705753706031e-02 -9.913735576844100e-03 0.0
5.637713634335956e-02 3.027729581743706e-03 0.0
4.786928734119013e-02 -2.984136985193742e-03 0.0
5.486946901698429e-02 -5.520346606974432e-04 0.0
5.482598718926002e-02 -1.320031217930083e-03 0.0
5.380476904175675e-02 -8.967904674392850e-04 0.0
6.230687307595838e-02 -8.282230554681125e-04 0.0
4.755767373987990e-02 -6.703876739809778e-04 0.0
7.687314944332954e-02 -5.457837683092634e-04 0.0
3.127133589295181e-02 -4.401942906749600e-04 0.0
1.001808271575291e-01 -3.515239162593113e-04 0.0
9.851320160551189e-03 -2.960465564973336e-04 0.0
1.207383243325710e-01 -2.573044155496400e-04 0.0
0.000000000000000e+00 0.000000000000000e+00 0.0
0.000000000000000e+00 0.000000000000000e+00 0.0
4.758236448683142e-02 -1.072997736110453e-02 0.0
1.791421053349122e-02 1.348706782827180e-03 0.0
9.435972366925930e-03 -9.655310519324393e-03 0.0
4.010143745458916e-02 1.562727082244797e-02 0.0
0.000000000000000e+00 0.000000000000000e+00 0.0
0.000000000000000e+00 0.000000000000000e+00 0.0
0.000000000000000e+00 0.000000000000000e+00 0.0
0.000000000000000e+00 0.000000000000000e+00 0.0
0.000000000000000e+00 0.000000000000000e+00 0.0
0.000000000000000e+00 0.000000000000000e+00 0.0
0.000000000000000e+00 0.000000000000000e+00 0.0
0.000000000000000e+00 0.000000000000000e+00 0.0
1.025319292847056e-01 -4.908486266343037e-02 0.0
-3.523945198350512e-02 3.211085838051253e-02 0.0
7.630141348467893e-02 -1.149647701364978e-02 0.0
1.947964179124241e-02 2.796387583169462e-03 0.0
6.145089472702050e-02 -4.325596309850942e-03 0.0
4.435824584561890e-02 -1.795598678249714e-03 0.0
5.618995590758984e-02 -2.540816945788128e-03 0.0
5.465387716850253e-02 -1.881010968054622e-03 0.0
5.423547882586470e-02 -1.706682703481917e-03 0.0
6.253401723988415e-02 -1.369968524691632e-03 0.0
4.778513763889582e-02 -1.139078608350744e-03 0.0
7.704671614550732e-02 -9.218481781177514e-04 0.0
3.140678093171553e-02 -7.584607731943387e-04 0.0
1.002774036920994e-01 -6.232624496333258e-04 0.0
9.916552937171473e-03 -5.423223467575328e-04 0.0
1.207690221043922e-01 -4.831835024547100e-04 0.0
0.000000000000000e+00 0.000000000000000e+00 0.0
0.000000000000000e+00 0.000000000000000e+00 0.0
5.930928905284196e-02 -1.226688597881722e-02 0.0
2.139510159034537e-02 7.378564003609787e-03 0.0
2.598297295402147e-02 -1.594937660262255e-02 0.0
6.501626232240473e-02 2.934116583465391e-02 0.0
0.000000000000000e+00 0.000000000000000e+00 0.0
0.000000000000000e+00 0.000000000000000e+00 0.0
0.000000000000000e+00 0.000000000000000e+00 0.0
0.000000000000000e+00 0.000000000000000e+00 0.0
0.000000000000000e+00 0.000000000000000e+00 0.0
0.000000000000000e+00 0.000000000000000e+00 0.0
0.000000000000000e+00 0.000000000000000e+00 0.0
0.000000000000000e+00 0.000000000000000e+00 0.0
0.000000000000000e+00 0.000000000000000e+00 0.0
5.269134974651622e-02 -1.664135366319165e-02 0.0
3.438553745504892e-02 -1.356504459454167e-02 0.0
4.438640069001586e-02 -9.186449350853236e-03 0.0
5.180035247595381e-02 -6.946455302378329e-03 0.0
4.965412351602567e-02 -5.253718285264453e-03 0.0
5.478478468428585e-02 -4.045769720529283e-03 0.0
5.566006416751060e-02 -3.168452443197735e-03 0.0
5.431583431005421e-02 -2.494503811943148e-03 0.0
6.287450274457994e-02 -1.979479157597487e-03 0.0
4.800570476592491e-02 -1.579963816451283e-03 0.0
7.725395686572094e-02 -1.268634792879412e-03 0.0
3.156951491837880e-02 -1.037234272786437e-03 0.0
1.003976996747611e-01 -8.555038307675586e-04 0.0
9.999063903035017e-03 -7.488339372932990e-04 0.0
1.208092053967717e-01 -6.704530102297896e-04 0.0
0.000000000000000e+00 0.000000000000000e+00 0.0
0.000000000000000e+00 0.000000000000000e+00 0.0
6.699040848701457e-02 -1.634080201892393e-02 0.0
1.403080083333009e-02 1.926266734365447e-02 0.0
3.135744088845403e-02 -3.323279395369994e-02 0.0
3.025527828886693e-02 7.956229122454422e-02 0.0
0.000000000000000e+00 0.000000000000000e+00 0.0
0.000000000000000e+00 0.000000000000000e+00 0.0
0.000000000000000e+00 0.000000000000000e+00 0.0
0.000000000000000e+00 0.000000000000000e+00 0.0
0.000000000000000e+00 0.000000000000000e+00 0.0
0.000000000000000e+00 0.000000000000000e+00 0.0
0.000000000000000e+00 0.000000000000000e+00 0.0
0.000000000000000e+00 0.000000000000000e+00 0.0
1.186767305562801e-01 3.346094606561081e-02 0.0
-1.630589656611243e-02 -6.035407321601305e-02 0.0
8.406402120008911e-02 -2.998757047236938e-03 0.0
2.612227708259791e-02 -1.875993909634273e-02 0.0
6.537931159654921e-02 -6.524815701591392e-03 0.0
4.726048049443297e-02 -7.755092391892598e-03 0.0
5.827504784084131e-02 -4.804121500887854e-03 0.0
5.620528016539326e-02 -4.110029983486202e-03 0.0
5.542441456224707e-02 -3.055205444528711e-03 0.0
6.344865749271594e-02 -2.449541568408950e-03 0.0
4.849580780336778e-02 -1.922229402703803e-03 0.0
7.758977808957185e-02 -1.541392143134607e-03 0.0
3.181928719182053e-02 -1.256052453752122e-03 0.0
1.005668726282435e-01 -1.036482993511782e-03 0.0
1.010997824841237e-02 -9.089682973010282e-04 0.0
1.208617234459547e-01 -8.140539559886996e-04 0.0
0.000000000000000e+00 0.000000000000000e+00 0.0
0.000000000000000e+00 0.000000000000000e+00 0.0
9.455807347062406e-02 -1.090107559745282e-02 0.0
4.122885140521711e-03 2.215365541778308e-02 0.0
8.607605951588884e-02 -1.416312702005255e-02 0.0
-7.011533235526406e-03 7.828602477898945e-02 0.0
1.252017763122988e-01 -1.724559506618927e-02 0.0
5.606904412395018e-03 -8.745589033931692e-03 0.0
1.297298310782566e-01 5.232775028590106e-02 0.0
0.000000000000000e+00 0.000000000000000e+00 0.0
0.000000000000000e+00 0.000000000000000e+00 0.0
0.000000000000000e+00 0.000000000000000e+00 0.0
0.000000000000000e+00 0.000000000000000e+00 0.0
0.000000000000000e+00 0.000000000000000e+00 0.0
1.253097172402930e-01 -8.492355159820002e-02 0.0
1.943086661718487e-02 7.302533532119609e-03 0.0
7.581011848007728e-02 -3.282902484704602e-02 0.0
4.079962658461771e-02 -5.046466801742724e-03 0.0
6.279755437641844e-02 -1.326716020690245e-02 0.0
5.137167068750022e-02 -5.862105186522061e-03 0.0
5.842954183576916e-02 -6.235552778323637e-03 0.0
5.740885523444310e-02 -4.183032778981285e-03 0.0
5.597623784213007e-02 -3.466004261682075e-03 0.0
6.400759758657157e-02 -2.661137089859297e-03 0.0
4.891361235449713e-02 -2.117818246759342e-03 0.0
7.792057498457253e-02 -1.688253331904938e-03 0.0
3.207362203479105e-02 -1.377867706233208e-03 0.0
1.007461276277607e-01 -1.135934261265817e-03 0.0
1.023030201163319e-02 -9.977418832907534e-04 0.0
1.209204628484485e-01 -8.923964193064904e-04 0.0
0.000000000000000e+00 0.000000000000000e+00 0.0
0.000000000000000e+00 0.000000000000000e+00 0.0
9.953236692071729e-02 -6.531737384617323e-03 0.0
1.052568196940020e-02 1.133759993875350e-02 0.0
8.686549131760879e-02 -1.947557271584122e-03 0.0
2.592272553237345e-02 2.550652449358300e-02 0.0
1.154160495745665e-01 2.825314501900385e-02 0.0
2.169188938419467e-02 -6.945216502244162e-04 0.0
8.333280885981478e-02 6.923603132752568e-02 0.0
4.457851583963267e-02 -3.505171943057917e-02 0.0
9.909081193972975e-02 6.467647203381126e-02 0.0
0.000000000000000e+00 0.000000000000000e+00 0.0
9.309911887110515e-02 -7.588679781728359e-02 0.0
5.386118242493928e-02 2.979489725705301e-02 0.0
6.608436418267388e-02 -6.463124119811964e-02 0.0
3.584123905290558e-02 -9.637964233499823e-03 0.0
7.196228344346954e-02 -2.681020542550414e-02 0.0
4.568496996869159e-02 -9.899067860118111e-03 0.0
6.457846713672627e-02 -1.283178012604841e-02 0.0
5.429202135536052e-02 -7.000362656705222e-03 0.0
5.995495920417090e-02 -6.600289907341802e-03 0.0
5.897485055801410e-02 -4.530317943826581e-03 0.0
5.694629034220713e-02 -3.697754537071494e-03 0.0
6.479698314077109e-02 -2.815860635848876e-03 0.0
4.946842075019039e-02 -2.232600858762193e-03 0.0
7.833022511602393e-02 -1.769073055025322e-03 0.0
3.237070010886584e-02 -1.441840688590142e-03 0.0
1.009485115239213e-01 -1.183188040828979e-03 0.0
1.036243127409400e-02 -1.040530115701871e-03 0.0
1.209845992145184e-01 -9.249149829952902e-04 0.0
0.000000000000000e+00 0.000000000000000e+00 0.0
0.000000000000000e+00 0.000000000000000e+00 0.0
1.119264232787799e-01 -4.353375492325980e-03 0.0
8.350197146165500e-03 1.185710241317520e-02 0.0
1.000673073475945e-01 -2.482288548672962e-03 0.0
2.298266813711047e-02 2.631680536692363e-02 0.0
1.007037474901904e-01 5.538107597929096e-03 0.0
4.676788372404141e-02 6.611793092631990e-03 0.0
9.574333603394149e-02 3.563435858442145e-02 0.0
9.366360626696216e-02 8.718276068255849e-03 0.0
7.343063010858245e-02 6.765355871392741e-02 0.0
1.367367768998139e-01 -2.459184285273505e-03 0.0
7.333596585678566e-02 -7.692476667866691e-02 0.0
9.233637278039247e-02 -1.605528642880925e-02 0.0
8.857595248121800e-02 -5.132304377159556e-02 0.0
5.779914554509351e-02 -5.918128478766195e-03 0.0
7.559240679800941e-02 -2.552139352900671e-02 0.0
5.479543131805708e-02 -6.712946706899805e-03 0.0
6.569958606151448e-02 -1.194697999694575e-02 0.0
5.760334125596843e-02 -5.847519393248870e-03 0.0
6.089974319088958e-02 -6.032747112527303e-03 0.0
6.031137021973502e-02 -4.086823246176404e-03 0.0
5.769061836652711e-02 -3.412695364406942e-03 0.0
6.547289382589487e-02 -2.608891654186588e-03 0.0
4.996010173078453e-02 -2.084301394191018e-03 0.0
7.871186052992479e-02 -1.654416231894826e-03 0.0
3.265855251151788e-02 -1.353815822162134e-03 0.0
1.011490178228024e-01 -1.107627551142774e-03 0.0
1.049721226034684e-02 -9.774185670906662e-04 0.0
1.210538235167901e-01 -8.639126531927724e-04 0.0
0.000000000000000e+00 0.000000000000000e+00 0.0
0.000000000000000e+00 0.000000000000000e+00 0.0
1.153045221276090e-01 -1.275588542737327e-03 0.0
1.206013753275392e-02 6.337760952863467e-03 0.0
1.012693316599434e-01 3.280457451000449e-03 0.0
3.390221588523928e-02 1.061883741379277e-02 0.0
9.569478389371620e-02 1.581437848584660e-02 0.0
5.177122692222683e-02 2.400904363765132e-03 0.0
8.538945340639216e-02 2.829417157060243e-02 0.0
7.749533216276164e-02 -7.225409445119570e-03 0.0
8.679438285319234e-02 1.782525402461314e-02 0.0
1.339613905282931e-01 -4.094527723142444e-04 0.0
8.585611161438585e-02 -2.327349197664772e-02 0.0
8.040549987924529e-02 5.146539946264424e-03 0.0
7.627154525560882e-02 -3.071167662403717e-02 0.0
6.173630469033705e-02 -3.720038182913137e-03 0.0
7.116649860080886e-02 -1.920626111184837e-02 0.0
5.926762132932301e-02 -6.300278132199645e-03 0.0
6.544479714755101e-02 -1.027071902286425e-02 0.0
6.020671672049936e-02 -5.493177265679965e-03 0.0
6.171573705959280e-02 -5.502315816774971e-03 0.0
6.159493509634637e-02 -3.810755836788832e-03 0.0
5.842416313181672e-02 -3.160771223398024e-03 0.0
6.612550427035045e-02 -2.421022543486928e-03 0.0
5.042262872429101e-02 -1.933324939206700e-03 0.0
7.906119297559427e-02 -1.528432767158534e-03 0.0
3.291659153235494e-02 -1.257915855553127e-03 0.0
1.013264077834436e-01 -1.012811755022274e-03 0.0
1.061410196351736e-02 -9.078320347677475e-04 0.0
1.211149136901103e-01 -7.769667631824553e-04 0.0
0.000000000000000e+00 0.000000000000000e+00 0.0
0.000000000000000e+00 0.000000000000000e+00 0.0
1.191738640007159e-01 -5.256653457409675e-04 0.0
1.259951363850164e-02 5.109155732687816e-03 0.0
1.043219894916809e-01 1.626701289836350e-03 0.0
3.549631645275605e-02 9.002183939895722e-03 0.0
9.250249602088685e-02 6.411743674169639e-03 0.0
5.922414466968329e-02 4.353477195878508e-03 0.0
8.615991462354339e-02 1.542492608259945e-02 0.0
8.321406307587208e-02 2.416837001530010e-03 0.0
8.004588972438280e-02 1.673315683986135e-02 0.0
9.738990223300034e-02 -1.731550959996023e-03 0.0
7.911529133594716e-02 -2.272458164959405e-02 0.0
8.486764650143780e-02 -6.073761391456049e-03 0.0
7.965395471037424e-02 -2.233500357509254e-02 0.0
6.934995633917622e-02 -5.487369721331904e-03 0.0
7.300908422698472e-02 -1.374314352071278e-02 0.0
6.373804989830278e-02 -5.214009195338465e-03 0.0
6.650668135480227e-02 -7.453400896474956e-03 0.0
6.237230994012594e-02 -4.208410317862457e-03 0.0
6.258216584305283e-02 -4.108869025486671e-03 0.0
6.265296799785532e-02 -2.915007963097098e-03 0.0
5.908029924038227e-02 -2.418948988806019e-03 0.0
6.670045799565218e-02 -1.869457763254364e-03 0.0
5.085245075610222e-02 -1.500603549133944e-03 0.0
7.938769828724837e-02 -1.185361076442037e-03 0.0
3.317336304846371e-02 -9.836134080118497e-04 0.0
1.015004322026732e-01 -7.813270545094824e-04 0.0
1.073995819745610e-02 -7.094113562072049e-04 0.0
1.211997098914232e-01 -5.936812037426074e-04 0.0
0.000000000000000e+00 0.000000000000000e+00 0.0
0.000000000000000e+00 0.000000000000000e+00 0.0
1.206677809534076e-01 1.930656089825224e-04 0.0
1.397445097835124e-02 2.994514630365095e-03 0.0
1.051521771846913e-01 2.254726643549495e-03 0.0
3.867574633446949e-02 4.531798369507226e-03 0.0
9.104796948821878e-02 6.371606692630149e-03 0.0
6.077888389105890e-02 2.343947081504176e-03 0.0
8.344609166786995e-02 9.576771824313617e-03 0.0
7.880460152164678e-02 -7.834285840271813e-04 0.0
8.263593892152944e-02 4.763164764213129e-03 0.0
9.449839101547869e-02 -4.470277266581712e-04 0.0
8.152054449023921e-02 -7.278475047667585e-03 0.0
8.079160743730290e-02 -1.981179132727655e-04 0.0
7.686205771071707e-02 -1.162664622396328e-02 0.0
7.033844115530248e-02 -2.654952032582159e-03 0.0
7.143645895533890e-02 -8.627889909934129e-03 0.0
6.555776427957408e-02 -3.622893442085160e-03 0.0
6.644820552416943e-02 -5.141544506654236e-03 0.0
6.354970268878836e-02 -3.110132934524730e-03 0.0
6.300741222131812e-02 -2.976091678512695e-03 0.0
6.328327276167618e-02 -2.167696966451062e-03 0.0
5.946811918493521e-02 -1.789841489287918e-03 0.0
6.704241692960583e-02 -1.387955078535856e-03 0.0
5.110508030051885e-02 -1.124983045803553e-03 0.0
7.957700672721645e-02 -8.675817036692082e-04 0.0
3.331866437176974e-02 -7.596824787509672e-04 0.0
1.015999768873519e-01 -5.364050646164680e-04 0.0
1.080626135231035e-02 -5.699684448566239e-04 0.0
1.212401576616910e-01 -3.681843036867365e-04 0.0
0.000000000000000e+00 0.000000000000000e+00 0.0
0.000000000000000e+00 0.000000000000000e+00 0.0
1.209247966348197e-01 5.609365831140268e-04 0.0
1.420714250917975e-02 1.760774834055617e-03 0.0
1.051804973546372e-01 1.152891762211161e-03 0.0
3.910750961660305e-02 2.465248274022057e-03 0.0
8.967908919842658e-02 2.087725159388985e-03 0.0
6.180685538115636e-02 1.730126237151198e-03 0.0
8.236055812900328e-02 3.735036125996553e-03 0.0
7.769651243831725e-02 1.311358471469521e-03 0.0
7.964105014383963e-02 3.320919712416498e-03 0.0
8.457200951373231e-02 -9.749331302888877e-04 0.0
7.859441822060109e-02 -5.870416858922895e-03 0.0
7.975321729511467e-02 -3.139772042760483e-03 0.0
7.645366028723671e-02 -6.155166860082884e-03 0.0
7.166028294617340e-02 -2.812517901873990e-03 0.0
7.137682267917154e-02 -4.137623554865939e-03 0.0
6.660088695489245e-02 -2.205803630721384e-03 0.0
6.641955601417253e-02 -2.463775350129992e-03 0.0
6.396223749713727e-02 -1.630191186841576e-03 0.0
6.296663832647664e-02 -1.471048944988736e-03 0.0
6.329461541682878e-02 -1.109687048231085e-03 0.0
5.932947127375697e-02 -9.125071619077566e-04 0.0
6.683430509379612e-02 -7.160298785650658e-04 0.0
5.087080730582271e-02 -5.885087072935954e-04 0.0
7.920383961706884e-02 -4.478104757463719e-04 0.0
3.306913791533467e-02 -4.124235363880974e-04 0.0
1.010433445305689e-01 -2.623323587956200e-04 0.0
1.065473190651756e-02 -3.228002513158757e-04 0.0
1.205036916582013e-01 -1.584291462811356e-04 0.0
0.000000000000000e+00 0.000000000000000e+00 0.0
0.000000000000000e+00 0.000000000000000e+00 0.0
0.000000000000000e+00 0.000000000000000e+00 0.0
0.000000000000000e+00 0.000000000000000e+00 0.0
0.000000000000000e+00 0.000000000000000e+00 0.0
0.000000000000000e+00 0.000000000000000e+00 0.0
0.000000000000000e+00 0.000000000000000e+00 0.0
0.000000000000000e+00 0.000000000000000e+00 0.0
0.000000000000000e+00 0.000000000000000e+00 0.0
0.000000000000000e+00 0.000000000000000e+00 0.0
0.000000000000000e+00 0.000000000000000e+00 0.0
0.000000000000000e+00 0.000000000000000e+00 0.0
0.000000000000000e+00 0.000000000000000e+00 0.0
0.000000000000000e+00 0.000000000000000e+00 0.0
0.000000000000000e+00 0.000000000000000e+00 0.0
0.000000000000000e+00 0.000000000000000e+00 0.0
0.000000000000000e+00 0.000000000000000e+00 0.0
0.000000000000000e+00 0.000000000000000e+00 0.0
0.000000000000000e+00 0.000000000000000e+00 0.0
0.000000000000000e+00 0.000000000000000e+00 0.0
0.000000000000000e+00 0.000000000000000e+00 0.0
0.000000000000000e+00 0.000000000000000e+00 0.0
0.000000000000000e+00 0.000000000000000e+00 0.0
0.000000000000000e+00 0.000000000000000e+00 0.0
0.000000000000000e+00 0.000000000000000e+00 0.0
0.000000000000000e+00 0.000000000000000e+00 0.0
0.000000000000000e+00 0.000000000000000e+00 0.0
0.000000000000000e+00 0.000000000000000e+00 0.0
0.000000000000000e+00 0.000000000000000e+00 0.0
0.000000000000000e+00 0.000000000000000e+00 0.0
0.000000000000000e+00 0.000000000000000e+00 0.0

SCALARS pressure double
LOOKUP_TABLE default
-4.856617671404354e+02
-4.856617671404354e+02
-4.840552191228424e+02
-4.850289298043481e+02
-4.828696131218076e+02
-4.835412215992126e+02
-4.818211316178033e+02
-4.816609940513027e+02
-4.807074401114743e+02
-4.799201100998597e+02
-4.794248826659906e+02
-4.786733267844899e+02
-4.783563864752692e+02
-4.777503280459402e+02
-4.774180800166190e+02
-4.769720868818558e+02
-4.766025014705931e+02
-4.762438796579742e+02
-4.758745242117040e+02
-4.755573565931924e+02
-4.751580523644677e+02
-4.749559590489548e+02
-4.743527617671322e+02
-4.745078052850280e+02
-4.734146232863882e+02
-4.741266469177085e+02
-4.725818944234193e+02
-4.734302655483210e+02
-4.722343673584933e+02
-4.722343673584933e+02